9
Properties=species:S:1:pos:R:3 =T energy=-3202.2863265984056 pbc="F F F"
C      -1.15160100      -0.49789400       0.00108500 
C      -0.00110600       0.48549000       0.00001300 
C       1.30796700       0.13003500      -0.00176700 
H       1.61054800      -0.91608100       0.01046100 
H       2.09529400       0.89357200      -0.00939700 
H      -0.26807700       1.56107500       0.02203700 
H      -0.78836200      -1.52635600       0.00185300 
H      -1.80138400      -0.35395800       0.88077400 
H      -1.78877200      -0.35095800      -0.89777200 
9
Properties=species:S:1:pos:R:3 =T energy=-3202.1094719149023 pbc="F F F"
C      -1.04186700      -0.70864900      -0.01879100 
C      -0.06181400       0.42725900       0.12130300 
C       1.24401600       0.41509100      -0.10879700 
H       1.77915500      -0.53479700      -0.42604300 
H       1.82345300       1.32169100       0.08410800 
H      -0.50021100       1.36566700       0.47418000 
H      -0.51504800      -1.66991400       0.34010500 
H      -1.92378600      -0.52949800       0.63646500 
H      -1.41623300      -0.82296400      -1.03947200 
9
Properties=species:S:1:pos:R:3 =T energy=-3201.9993133130283 pbc="F F F"
C      -0.71459700      -0.99684900      -0.01252400 
C      -0.22285300       0.41054200       0.17738200 
C       1.05625100       0.73921000      -0.14206700 
H       1.56855100      -0.05280700      -0.71486000 
H       1.45311500       1.71373500       0.06879700 
H      -0.91250400       1.19645600       0.65941300 
H       0.10640800      -1.62880800      -0.17786400 
H      -1.33509600      -1.36480100       0.81338000 
H      -1.36962500      -0.95718500      -0.95078800 
9
Properties=species:S:1:pos:R:3 =T energy=-3201.9753651602105 pbc="F F F"
C      -0.33349600      -1.24945600      -0.06554700 
C      -0.29192200       0.28505500       0.14831900 
C       0.68466800       1.12789000      -0.10551500 
H       1.62678500       0.80075400      -0.53707400 
H       0.54440300       2.21074400       0.17644100 
H      -1.11538900       0.69252100       0.74173400 
H       0.24221800      -1.61642900      -0.98986800 
H       0.25652600      -1.60109200       0.82977100 
H      -1.32184900      -1.68609500      -0.02475800 
9
Properties=species:S:1:pos:R:3 =T energy=-3202.0947686600057 pbc="F F F"
C       0.06048500      -1.24438700      -0.07464100 
C      -0.34388600       0.14590900       0.23502000 
C       0.33495100       1.25242300      -0.13806100 
H       1.18231800       1.15661100      -0.82052700 
H       0.00577500       2.23563500       0.27833300 
H      -1.28347800       0.34187100       0.79304900 
H       0.41766300      -1.27151000      -1.12252000 
H       0.84897700      -1.66532200       0.56270100 
H      -0.84584700      -1.88310200      -0.06437000 
9
Properties=species:S:1:pos:R:3 =T energy=-3202.1274321482438 pbc="F F F"
C       0.28338400      -1.21100300      -0.16397700 
C      -0.27193900       0.10547600       0.37553900 
C       0.00601500       1.26376800      -0.18545900 
H       0.74974900       1.26573300      -1.00909900 
H      -0.43063300       2.22621800       0.05621800 
H      -0.91493900       0.06769100       1.29174000 
H       1.08326600      -1.07858900      -0.88112300 
H       0.71485500      -1.74704900       0.72248700 
H      -0.47443200      -1.91406500      -0.61962600 
9
Properties=species:S:1:pos:R:3 =T energy=-3201.9731600131026 pbc="F F F"
C       0.55305800      -1.15354000      -0.13006500 
C      -0.16342800       0.03174900       0.38029600 
C      -0.35116900       1.25407400      -0.21384600 
H      -0.01412800       1.55104500      -1.24263200 
H      -0.89073300       1.99642000       0.36136800 
H      -0.75496500      -0.04368100       1.29435700 
H       1.52685500      -0.91596700      -0.70245100 
H       0.72639300      -1.95483200       0.59827400 
H      -0.11322000      -1.58583000      -0.89351200 
9
Properties=species:S:1:pos:R:3 =T energy=-3201.930079564756 pbc="F F F"
C       0.87290200      -0.87137000      -0.22124700 
C      -0.15830000      -0.02380400       0.43106000 
C      -0.73191500       0.99118600      -0.16798600 
H      -0.27190200       1.42818300      -1.07162300 
H      -1.64521500       1.56384500       0.07846500 
H      -0.48618600      -0.31326600       1.44692100 
H       1.45476200      -0.24274900      -0.84146800 
H       1.54018600      -1.32278400       0.52685600 
H       0.55552300      -1.76822500      -0.82457700 
9
Properties=species:S:1:pos:R:3 =T energy=-3201.8417982031638 pbc="F F F"
C       1.20306500      -0.41408300      -0.23588800 
C      -0.16897200      -0.24295000       0.35676700 
C      -1.06535900       0.71313600      -0.08131100 
H      -0.90349100       1.26477700      -1.00774900 
H      -2.07418300       0.96063600       0.37701100 
H      -0.51663100      -0.95941000       1.15584000 
H       1.25464800      -0.26033000      -1.37747400 
H       2.09848700       0.11318300       0.23417500 
H       1.47189600      -1.47691000      -0.07562900 
9
Properties=species:S:1:pos:R:3 =T energy=-3202.062635457926 pbc="F F F"
C       1.26899400      -0.12523400      -0.26240900 
C      -0.10163000      -0.26951000       0.32758800 
C      -1.19647100       0.38107000      -0.06653700 
H      -1.33363500       1.19802300      -0.76479600 
H      -2.14353100       0.17883700       0.44758900 
H      -0.18193800      -0.88421300       1.23773100 
H       1.30256300       0.06880900      -1.34350200 
H       1.71029400       0.72117100       0.23828100 
H       1.97268000      -0.93864900      -0.03826600 
9
Properties=species:S:1:pos:R:3 =T energy=-3202.035193349623 pbc="F F F"
C       1.24452100       0.15411200      -0.25519100 
C      -0.01996700      -0.26315500       0.38767800 
C      -1.25131900       0.09011200      -0.08383700 
H      -1.32824400       0.55383500      -1.11676200 
H      -2.20860800      -0.07522300       0.41203700 
H       0.09009300      -0.90527400       1.26708600 
H       1.00663900       0.77659200      -1.12529000 
H       2.00766800       0.72848600       0.39307700 
H       1.76720200      -0.76546700      -0.65973100 
9
Properties=species:S:1:pos:R:3 =T energy=-3201.984358857831 pbc="F F F"
C       1.22002100       0.41634900      -0.28072700 
C       0.00635500      -0.22985500       0.37923200 
C      -1.24332600      -0.26454800      -0.08271600 
H      -1.51111500       0.26596200      -1.02145100 
H      -2.06392200      -0.77921500       0.39840200 
H       0.27237900      -0.55001700       1.42230700 
H       0.94403400       1.44531700      -0.69055200 
H       1.89424900       0.66818900       0.49216100 
H       1.75457700      -0.14366500      -1.04174400 
9
Properties=species:S:1:pos:R:3 =T energy=-3201.827645858079 pbc="F F F"
C       0.93725200       0.86990100      -0.23361100 
C       0.15002800      -0.31115700       0.37023300 
C      -1.07666500      -0.64000500      -0.11552400 
H      -1.64420600      -0.20742900      -0.91639300 
H      -1.53393200      -1.43499500       0.54169600 
H       0.64344800      -0.96287800       1.09837800 
H       0.37128600       1.58112000      -0.82991700 
H       1.57660900       1.49167700       0.50787200 
H       1.67129600       0.30734700      -0.90476100 
9
Properties=species:S:1:pos:R:3 =T energy=-3202.017262020097 pbc="F F F"
C       0.57887800       1.14437500      -0.17148200 
C       0.32642900      -0.31924100       0.19965500 
C      -0.82193900      -0.96855300      -0.01984400 
H      -1.65626400      -0.36484100      -0.42609200 
H      -0.85689400      -2.09910500       0.12287400 
H       1.18135600      -0.78056400       0.71364200 
H      -0.09417000       1.39199600      -1.03179100 
H       0.18122500       1.74571400       0.65579200 
H       1.60202400       1.43465800      -0.38102700 
9
Properties=species:S:1:pos:R:3 =T energy=-3202.0707975672995 pbc="F F F"
C       0.27596100       1.23444000      -0.08949600 
C       0.37600800      -0.22676300       0.14051400 
C      -0.55947100      -1.16351500      -0.03284600 
H      -1.49826900      -0.80244900      -0.45283600 
H      -0.35081400      -2.18829000       0.13764800 
H       1.42555000      -0.50883200       0.44455900 
H      -0.44626200       1.40304600      -0.94931500 
H      -0.06292100       1.83007800       0.78248700 
H       1.27641800       1.61603000      -0.42452300 
9
Properties=species:S:1:pos:R:3 =T energy=-3202.1177574802305 pbc="F F F"
C       0.01346300       1.26387500      -0.08000900 
C       0.44398600      -0.18951500       0.21675400 
C      -0.32004200      -1.23209800      -0.14514100 
H      -1.39040100      -1.10949700      -0.47078200 
H       0.10860000      -2.21943700       0.05720000 
H       1.39928200      -0.39691200       0.66660500 
H      -1.03397800       1.34962300      -0.29021400 
H       0.25812800       1.89458500       0.82234800 
H       0.54361400       1.73319000      -0.93449200 
9
Properties=species:S:1:pos:R:3 =T energy=-3201.9988851827247 pbc="F F F"
C      -0.28415600       1.22084600       0.03322000 
C       0.48366200      -0.09546600       0.12179400 
C      -0.03686200      -1.28458300      -0.14814000 
H      -1.01967800      -1.38415400      -0.65285200 
H       0.59729400      -2.19638800      -0.01083800 
H       1.55224600      -0.08000300       0.47015100 
H      -1.44984200       1.17998400       0.12898900 
H       0.12652100       1.94999800       0.70919700 
H      -0.13093100       1.63681300      -0.98585900 
9
Properties=species:S:1:pos:R:3 =T energy=-3201.8740711948535 pbc="F F F"
C      -0.62367600       1.02606700       0.12153600 
C       0.44151100       0.09354100      -0.07303300 
C       0.39437300      -1.25208300      -0.11206800 
H      -0.59190800      -1.66397000      -0.08038400 
H       1.22074900      -1.99004100      -0.11751700 
H       1.47472400       0.53289900      -0.02053600 
H      -1.50254300       0.43453100       0.05779700 
H      -0.62121300       1.39410800       1.21413400 
H      -0.76856800       1.89559200      -0.57172700 
9
Properties=species:S:1:pos:R:3 =T energy=-3202.06901626308 pbc="F F F"
C      -0.94348000       0.74561800       0.22496500 
C       0.38811100       0.20706700      -0.21417500 
C       0.78764300      -1.06755800      -0.08358500 
H       0.14231100      -1.90619400       0.35573800 
H       1.81470800      -1.45646600      -0.26048900 
H       1.11722600       0.88373100      -0.63064100 
H      -1.81845400       0.08277400      -0.03101100 
H      -1.00163000       0.84008600       1.30542700 
H      -1.15634700       1.75965400      -0.16077300 
9
Properties=species:S:1:pos:R:3 =T energy=-3202.0098056239535 pbc="F F F"
C      -1.09337900       0.47231500       0.27309900 
C       0.33135400       0.28114000      -0.23953300 
C       1.00743900      -0.87158700      -0.09223100 
H       0.62343200      -1.83675300       0.28740900 
H       1.98934000      -0.99172800      -0.49038200 
H       0.91600200       1.11492600      -0.69432600 
H      -1.78580100      -0.41410300       0.35190300 
H      -1.14242400       0.97551600       1.29499100 
H      -1.54986500       1.25108400      -0.35093200 
9
Properties=species:S:1:pos:R:3 =T energy=-3202.154784293864 pbc="F F F"
C      -1.13319700       0.24754200       0.28339600 
C       0.27297900       0.35757500      -0.13081000 
C       1.11130100      -0.69423800      -0.20011900 
H       0.86112800      -1.66047200       0.24548500 
H       2.14532600      -0.67180000      -0.59335600 
H       0.63976200       1.31039400      -0.55225200 
H      -1.21372700      -0.57687700       0.94848500 
H      -1.53165500       1.13747600       0.79572800 
H      -1.82294000       0.09824400      -0.59121400 
9
Properties=species:S:1:pos:R:3 =T energy=-3201.8960558991776 pbc="F F F"
C      -1.18295600      -0.00048300       0.33008300 
C       0.17449600       0.34930700      -0.14087700 
C       1.26753000      -0.41747600      -0.23817400 
H       1.23706500      -1.46773600       0.11093900 
H       2.30521800      -0.13040000      -0.64622600 
H       0.20089400       1.36553400      -0.54843500 
H      -1.14178400      -0.62187600       1.33582500 
H      -1.88899300       0.82789500       0.41728100 
H      -1.59765600      -0.71707800      -0.42106500 
9
Properties=species:S:1:pos:R:3 =T energy=-3201.963936111547 pbc="F F F"
C      -1.09493900      -0.47363100       0.36996800 
C       0.02192300       0.38584200      -0.25798800 
C       1.33528900       0.01591400      -0.17112300 
H       1.73048400      -0.87653700       0.29870600 
H       2.00967000       0.59724500      -0.78904500 
H      -0.22716000       1.34001600      -0.78773600 
H      -0.82621100      -0.94228600       1.26777900 
H      -1.92554900       0.27792500       0.59425800 
H      -1.50792900      -1.29512900      -0.24668000 
9
Properties=species:S:1:pos:R:3 =T energy=-3202.060400811616 pbc="F F F"
C      -0.85849500      -0.79795600       0.40723400 
C      -0.06613000       0.22784000      -0.40102700 
C       1.18063400       0.51597100      -0.09757100 
H       1.70665600      -0.05986300       0.71928700 
H       1.67381600       1.34891400      -0.56612000 
H      -0.64998100       0.69693300      -1.21210600 
H      -0.23575300      -1.60542100       0.93718300 
H      -1.50701800      -0.29202400       1.11862200 
H      -1.49036400      -1.39981200      -0.31084700 
9
Properties=species:S:1:pos:R:3 =T energy=-3202.094135800203 pbc="F F F"
C      -0.70294400      -1.03537200       0.34779400 
C      -0.08922700       0.13480600      -0.37041400 
C       1.03621900       0.82707800      -0.07054200 
H       1.67333000       0.52771200       0.80071200 
H       1.25870300       1.68301700      -0.73049400 
H      -0.73507900       0.52798400      -1.15711900 
H       0.12475900      -1.58073900       0.86355900 
H      -1.35862200      -0.63909600       1.18310600 
H      -1.22116100      -1.73921500      -0.27752400 
9
Properties=species:S:1:pos:R:3 =T energy=-3202.1414311281264 pbc="F F F"
C      -0.44337100      -1.15153200       0.34296200 
C      -0.19815500       0.17827200      -0.33136900 
C       0.86468200       0.93005400      -0.07590300 
H       1.59801000       0.53044100       0.58671700 
H       1.00714000       1.88281300      -0.61529600 
H      -0.94476200       0.40104900      -1.11916600 
H       0.14233600      -1.24445900       1.24189100 
H      -1.51049900      -1.26488400       0.63116600 
H      -0.22191100      -1.99916400      -0.40836700 
9
Properties=species:S:1:pos:R:3 =T energy=-3201.978836108871 pbc="F F F"
C      -0.16854900      -1.28217100       0.29659400 
C      -0.26516300       0.12519900      -0.31158700 
C       0.65276900       1.09080700      -0.08066300 
H       1.43198900       0.89886300       0.67193800 
H       0.46810900       2.10133200      -0.52849500 
H      -1.20602400       0.37965900      -0.87207500 
H       0.11103400      -1.23592500       1.43262000 
H      -1.11879100      -1.83734300       0.22392100 
H       0.52499700      -1.87314300      -0.26753300 
9
Properties=species:S:1:pos:R:3 =T energy=-3201.9606638752184 pbc="F F F"
C       0.27362000      -1.31842200       0.20431100 
C      -0.25618700       0.00048600      -0.26982100 
C       0.15256900       1.23396000       0.02267100 
H       1.05741100       1.48054600       0.66558100 
H      -0.38583700       2.06037600      -0.44420000 
H      -0.93004900      -0.04671100      -1.09612100 
H       0.72974800      -1.18512700       1.14015700 
H      -0.54648400      -2.11978600       0.29668600 
H       1.00007800      -1.76522400      -0.57680100 
9
Properties=species:S:1:pos:R:3 =T energy=-3202.0466911075423 pbc="F F F"
C       0.71225200      -1.14012300       0.13188900 
C      -0.21065600      -0.09632200      -0.39629700 
C      -0.34957500       1.11075400       0.17084300 
H       0.24602200       1.38537700       1.06520200 
H      -0.95170300       1.92695900      -0.18167100 
H      -1.01200500      -0.37504100      -1.12708100 
H       1.64556600      -0.66475300       0.64280900 
H       0.20725900      -1.81892400       0.82784500 
H       1.12629300      -1.76950500      -0.68087700 
9
Properties=species:S:1:pos:R:3 =T energy=-3202.117541605952 pbc="F F F"
C       0.96466400      -0.98083300       0.05445400 
C      -0.24339700      -0.19327000      -0.31575800 
C      -0.58333900       1.01259800       0.19171100 
H      -0.00230300       1.50486000       0.97730500 
H      -1.51622800       1.58748000      -0.01874700 
H      -0.82855500      -0.46906200      -1.21441600 
H       1.72380700      -0.42290300       0.63084000 
H       0.64335100      -1.85844900       0.66555000 
H       1.48161200      -1.39469500      -0.80892700 
9
Properties=species:S:1:pos:R:3 =T energy=-3202.018531096813 pbc="F F F"
C       1.09984800      -0.81473800       0.00120400 
C      -0.24183100      -0.26404900      -0.25933500 
C      -0.72782000       0.87883200       0.20499200 
H      -0.22121300       1.54182700       0.90630400 
H      -1.67603200       1.37211900      -0.14792100 
H      -0.96727900      -0.87095000      -0.79336000 
H       1.59201400      -0.32177200       0.83763400 
H       1.17803500      -1.92225600       0.11294700 
H       1.76622800      -0.54898200      -0.90996200 
9
Properties=species:S:1:pos:R:3 =T energy=-3201.9320904814977 pbc="F F F"
C       1.25870300      -0.52378600      -0.07972500 
C      -0.21852100      -0.39731300      -0.22583100 
C      -0.91410900       0.67760000       0.25435300 
H      -0.39725400       1.47605000       0.83362500 
H      -1.99138700       0.82468700       0.15611500 
H      -0.74430000      -0.95100200      -1.05269900 
H       1.63871400       0.06128700       0.85860800 
H       1.51224500      -1.57046200       0.08924300 
H       1.82019600      -0.28275800      -0.94006300 
9
Properties=species:S:1:pos:R:3 =T energy=-3201.7934600873937 pbc="F F F"
C       1.37059200      -0.06955400      -0.14401500 
C      -0.13174900      -0.37659700      -0.30388000 
C      -1.10134600       0.20082500       0.37778700 
H      -0.96667600       0.99773800       1.14855300 
H      -2.10183900      -0.16756800       0.26020100 
H      -0.35194000      -1.36796900      -0.71210200 
H       1.54206800       0.92067300       0.16139800 
H       1.96454300      -0.81433000       0.46424300 
H       1.81389900      -0.32360700      -1.21291200 
9
Properties=species:S:1:pos:R:3 =T energy=-3201.981790870254 pbc="F F F"
C       1.25091800       0.37172700      -0.26976400 
C       0.03443300      -0.52447700      -0.21991500 
C      -1.10575200      -0.19554700       0.43994400 
H      -1.26623500       0.86136300       0.74920200 
H      -1.91998900      -0.96017600       0.45906200 
H       0.08755700      -1.43333400      -0.83268400 
H       0.99408500       1.42620400       0.10631300 
H       1.87891100      -0.07628600       0.52560200 
H       1.79827800       0.35237200      -1.18876900 
9
Properties=species:S:1:pos:R:3 =T energy=-3202.07201148571 pbc="F F F"
C       1.13789600       0.58809400      -0.28645200 
C       0.14085400      -0.54663400      -0.13623200 
C      -1.08487200      -0.42706100       0.36357000 
H      -1.39705200       0.54329100       0.71833800 
H      -1.74062600      -1.31449500       0.53581900 
H       0.64592800      -1.52352100      -0.28664500 
H       0.72561800       1.48553200       0.23064900 
H       2.15152900       0.35898200       0.08206100 
H       1.12167300       0.88058000      -1.38090600 
9
Properties=species:S:1:pos:R:3 =T energy=-3202.111843800529 pbc="F F F"
C       0.98540800       0.75315700      -0.33853000 
C       0.25841000      -0.53194700      -0.06021200 
C      -1.02071500      -0.62260900       0.37251300 
H      -1.62881300       0.25421100       0.59979200 
H      -1.41229300      -1.64189800       0.48851200 
H       0.77242600      -1.41765100      -0.48715400 
H       0.49069500       1.60609900       0.10421900 
H       1.97035100       0.66369200       0.18400000 
H       1.04405900       1.00034000      -1.41235500 
9
Properties=species:S:1:pos:R:3 =T energy=-3201.8961361897277 pbc="F F F"
C       0.75003800       0.95886800      -0.32422500 
C       0.32895700      -0.53201600      -0.14084900 
C      -0.82456000      -0.88003400       0.42986300 
H      -1.58065800      -0.10819600       0.80677400 
H      -1.10860400      -1.93252800       0.39703600 
H       1.13516900      -1.23310200      -0.32709400 
H      -0.13142700       1.69844600      -0.57178700 
H       1.33131600       1.37491800       0.50218700 
H       1.31416400       1.01509600      -1.26289400 
9
Properties=species:S:1:pos:R:3 =T energy=-3201.905905116557 pbc="F F F"
C       0.32028700       1.07358400      -0.37548800 
C       0.50675800      -0.36236400       0.01360200 
C      -0.52184000      -1.18774800       0.32407700 
H      -1.54422400      -0.79969200       0.48699200 
H      -0.28640300      -2.18424700       0.60396100 
H       1.48199600      -0.80352900      -0.29337400 
H      -0.68109800       1.24791100      -0.62678800 
H       0.53441100       1.72437800       0.56707800 
H       1.00494600       1.48082800      -1.22438900 
9
Properties=species:S:1:pos:R:3 =T energy=-3202.0672790740764 pbc="F F F"
C      -0.04851400       1.09908000      -0.34513700 
C       0.50256600      -0.19587500       0.11502000 
C      -0.11612000      -1.38379300       0.20039600 
H      -1.17227100      -1.49077300      -0.05657600 
H       0.44493200      -2.34218000       0.42289400 
H       1.55074300      -0.10031200       0.48128100 
H      -1.18743800       1.00072800      -0.34217400 
H       0.27583600       1.99335100       0.19493600 
H       0.33478000       1.27533400      -1.33961400 
9
Properties=species:S:1:pos:R:3 =T energy=-3202.1396522378654 pbc="F F F"
C      -0.30602700       1.03220000      -0.33610600 
C       0.53653400      -0.11764100       0.16919600 
C       0.13808700      -1.40950600       0.13413200 
H      -0.85053800      -1.64866000      -0.29115200 
H       0.72535500      -2.30361400       0.49652800 
H       1.54635700       0.12193000       0.49035100 
H      -1.36979000       0.72423600      -0.44641900 
H      -0.25112500       1.88545200       0.37095400 
H       0.15365000       1.51231100      -1.25659800 
9
Properties=species:S:1:pos:R:3 =T energy=-3202.134640255809 pbc="F F F"
C      -0.47612000       0.94177300      -0.29535900 
C       0.54403500      -0.05349200       0.10627600 
C       0.32262800      -1.37686000       0.11029600 
H      -0.58105000      -1.91587400      -0.17094300 
H       1.05847800      -2.02831700       0.52467400 
H       1.51444500       0.25394200       0.57969100 
H      -1.27839500       0.49589800      -0.84943400 
H      -0.94022200       1.42834900       0.62469800 
H      -0.03038900       1.78854900      -0.82757400 
9
Properties=species:S:1:pos:R:3 =T energy=-3201.925500951056 pbc="F F F"
C      -0.72978400       0.80822700      -0.24525200 
C       0.48061400       0.01615400       0.14807100 
C       0.66058700      -1.31283000       0.05705000 
H      -0.01893400      -1.98833000      -0.59733100 
H       1.50227200      -1.92185200       0.41216100 
H       1.29096700       0.53306400       0.67890200 
H      -1.47461100       0.26145600      -0.99578400 
H      -1.30407200       1.07867200       0.63859600 
H      -0.44301400       1.77257900      -0.75033800 
9
Properties=species:S:1:pos:R:3 =T energy=-3202.0810033463304 pbc="F F F"
C      -0.98868000       0.43260200      -0.19669200 
C       0.35745200       0.05461500       0.31823800 
C       1.05779500      -0.97123400      -0.16241000 
H       0.63931800      -1.63976200      -0.90232900 
H       2.05680500      -1.34294500       0.14714600 
H       0.84352300       0.63349000       1.09543200 
H      -1.47828000      -0.39859300      -0.58221800 
H      -1.62830500       0.86521600       0.63923200 
H      -0.97176600       1.15097500      -1.04804100 
9
Properties=species:S:1:pos:R:3 =T energy=-3202.0660957749906 pbc="F F F"
C      -1.14049300       0.05744800      -0.10791800 
C       0.28160300       0.06775500       0.31371000 
C       1.28485300      -0.62681800      -0.25450100 
H       1.12962700      -1.35522600      -1.04242300 
H       2.34584700      -0.55210000       0.09435100 
H       0.59752400       0.74945800       1.17236600 
H      -1.42925400      -0.81389800      -0.81688300 
H      -1.82354800       0.15238600       0.76459300 
H      -1.27125700       0.94922800      -0.76223400 
9
Properties=species:S:1:pos:R:3 =T energy=-3202.1857616625043 pbc="F F F"
C      -1.18168800      -0.18173200      -0.08102200 
C       0.26987500       0.12029000       0.28786200 
C       1.35080300      -0.42962300      -0.25967700 
H       1.26728500      -1.18448400      -1.09809500 
H       2.37320200      -0.08273900       0.01608300 
H       0.42878200       0.90806100       1.01764700 
H      -1.18585800      -0.74927800      -1.02068700 
H      -1.59929500      -0.79509400       0.73110500 
H      -1.84165900       0.70423300      -0.20414300 
9
Properties=species:S:1:pos:R:3 =T energy=-3202.119981840906 pbc="F F F"
C      -1.11359400      -0.43352600      -0.05479200 
C       0.21020400       0.16298200       0.29986300 
C       1.34821200      -0.20851900      -0.32155900 
H       1.26469100      -0.99317400      -1.08198600 
H       2.25706900       0.21437900       0.00534000 
H       0.24158700       0.84092900       1.16769300 
H      -1.07293400      -0.87612600      -1.04865100 
H      -1.52294500      -1.14702500       0.72484300 
H      -1.80043600       0.45502300      -0.06026500 
9
Properties=species:S:1:pos:R:3 =T energy=-3201.87651286647 pbc="F F F"
C      -1.10971000      -0.70803300      -0.02821900 
C       0.22813500       0.03125600       0.34997200 
C       1.31090700       0.18641400      -0.40001600 
H       1.45162400      -0.33315600      -1.37936500 
H       2.09140200       0.85309900       0.06329200 
H       0.08453900       0.70025000       1.24235800 
H      -0.78637000      -1.62042500      -0.65597300 
H      -1.46681700      -1.13186800       0.89697000 
H      -1.89623400      -0.07537800      -0.45667500 
9
Properties=species:S:1:pos:R:3 =T energy=-3201.82373913291 pbc="F F F"
C      -0.74379400      -1.13707200      -0.00193100 
C       0.08405100       0.08265300       0.37572900 
C       1.06497400       0.58423100      -0.44455800 
H       1.09168900       0.12185700      -1.41061300 
H       1.59364900       1.53865600      -0.15337900 
H      -0.03825600       0.32999700       1.43073300 
H      -0.28412500      -1.81658600      -0.67740100 
H      -1.08417500      -1.76397000       0.89028900 
H      -1.60214000      -0.60424700      -0.47958700 
9
Properties=species:S:1:pos:R:3 =T energy=-3202.002058818115 pbc="F F F"
C      -0.42945500      -1.33409000       0.02620100 
C      -0.00876200       0.05679000       0.33375300 
C       0.76855600       0.81003000      -0.42743000 
H       1.23706100       0.43885800      -1.34749300 
H       1.09268500       1.77925300      -0.03910100 
H      -0.56436200       0.44494600       1.21075900 
H       0.06490900      -1.59729900      -0.96939000 
H       0.17045200      -2.00603500       0.64611800 
H      -1.51089200      -1.57809500       0.05145500 
9
Properties=species:S:1:pos:R:3 =T energy=-3202.112522119589 pbc="F F F"
C      -0.15521800      -1.45701600       0.02086200 
C      -0.11178400       0.02735100       0.30639700 
C       0.58532600       0.95536900      -0.40658600 
H       1.15116400       0.70987500      -1.36704200 
H       0.58322200       2.00744800      -0.09701300 
H      -0.50295900       0.30807700       1.30408000 
H       0.04559900      -1.76017500      -1.02459600 
H       0.50928600      -2.07999100       0.66263700 
H      -1.19508900      -1.79598100       0.20665600 
9
Properties=species:S:1:pos:R:3 =T energy=-3202.1075388323416 pbc="F F F"
C       0.05535500      -1.45181100      -0.02547700 
C      -0.05272900      -0.00636900       0.39898900 
C       0.32022800       0.97194200      -0.42953300 
H       0.67879200       0.82189600      -1.44564700 
H       0.20676700       2.01191000      -0.18444700 
H      -0.62503000       0.19360500       1.31314100 
H       0.70369100      -1.63615900      -0.88927100 
H       0.42889700      -2.03377900       0.87518200 
H      -0.90202100      -1.99077800      -0.26773000 
9
Properties=species:S:1:pos:R:3 =T energy=-3201.8133871746754 pbc="F F F"
C       0.39450100      -1.44937100       0.01413000 
C      -0.11557700      -0.10860000       0.34005000 
C      -0.01480200       1.02029500      -0.41542900 
H       0.60572300       1.10717600      -1.32583100 
H      -0.36960400       2.05500800      -0.06548500 
H      -0.46405000       0.05528900       1.37676100 
H       1.05327300      -1.35069300      -0.90479500 
H       0.68599700      -2.06619200       0.82544800 
H      -0.39413900      -2.06456500      -0.44018900 
9
Properties=species:S:1:pos:R:3 =T energy=-3201.7847134426665 pbc="F F F"
C       0.82096600      -1.27108000      -0.04937400 
C      -0.18703900      -0.24230100       0.29108900 
C      -0.39567300       0.94605900      -0.30286000 
H       0.10176400       1.19017100      -1.24025900 
H      -1.14287400       1.74096700      -0.08358200 
H      -1.00018200      -0.57792300       0.98038100 
H       1.17125100      -1.06136200      -1.03663500 
H       1.61379700      -1.21517600       0.78721400 
H       0.56462500      -2.36354900       0.05578100 
9
Properties=species:S:1:pos:R:3 =T energy=-3202.0369103416406 pbc="F F F"
C       1.10901800      -0.96733700      -0.07567100 
C      -0.24470400      -0.42597200       0.25785000 
C      -0.67564800       0.74966900      -0.25648800 
H      -0.04755400       1.39562900      -0.90896200 