3
Properties=species:S:1:pos:R:3 0.34720782817532153=T energy=0.34720782817532153 pbc="F F F"
O        1.46742127      -1.19259396       0.94164785
H        1.60210061      -2.24338036       1.05547804
H        1.51301898      -1.09093807       1.90124610
3
Properties=species:S:1:pos:R:3 1.5233191815779417=T energy=1.5233191815779417 pbc="F F F"
O       -0.27918765      -0.31015645      -1.26461898
H       -0.20187792      -0.37842533      -0.12323484
H       -0.26163869      -1.48119560      -1.55331987
3
Properties=species:S:1:pos:R:3 0.9233746473945527=T energy=0.9233746473945527 pbc="F F F"
O       -0.76324555      -1.92580906      -2.47267946
H        0.23708716      -1.92580906      -2.47267946
H       -0.79971289      -1.10973258      -2.47267946
3
Properties=species:S:1:pos:R:3 0.15580313525156586=T energy=0.15580313525156586 pbc="F F F"
O        0.48684799      -0.21838706      -1.18769061
H        1.50637327      -0.21838706      -1.18769061
H        0.40313378       0.71045448      -1.18769061
3
Properties=species:S:1:pos:R:3 0.8828246388898904=T energy=0.8828246388898904 pbc="F F F"
O        0.32387746      -1.09984867      -0.39718432
H        1.46305021      -1.09984867      -0.39718432
H        0.08306118      -0.26821918      -0.39718432
